Program Version,EnergyPlus, Version 22.1.0-ed759b17ee, YMD=2024.01.29 10:51
1,5,Environment Title[],Latitude[deg],Longitude[deg],Time Zone[],Elevation[m]
2,8,Day of Simulation[],Month[],Day of Month[],DST Indicator[1=yes 0=no],Hour[],StartMinute[],EndMinute[],DayType
3,5,Cumulative Day of Simulation[],Month[],Day of Month[],DST Indicator[1=yes 0=no],DayType  ! When Daily Report Variables Requested
4,2,Cumulative Days of Simulation[],Month[]  ! When Monthly Report Variables Requested
5,1,Cumulative Days of Simulation[] ! When Run Period Report Variables Requested
6,1,Calendar Year of Simulation[] ! When Annual Report Variables Requested
7,7,Environment,Site Outdoor Air Drybulb Temperature [C] !Daily [Value,Min,Hour,Minute,Max,Hour,Minute]
8,1,Environment,Site Outdoor Air Drybulb Temperature [C] !Hourly
9,9,Environment,Site Outdoor Air Drybulb Temperature [C] !Monthly [Value,Min,Day,Hour,Minute,Max,Day,Hour,Minute]
10,11,Environment,Site Outdoor Air Drybulb Temperature [C] !RunPeriod [Value,Min,Month,Day,Hour,Minute,Max,Month,Day,Hour,Minute]
11,1,Environment,Site Outdoor Air Drybulb Temperature [C] !TimeStep
12,1,Environment,Site Total Sky Cover [] !Hourly
13,1,Environment,Site Opaque Sky Cover [] !Hourly
14,7,Environment,Site Daylight Saving Time Status [] !Daily [Value,Min,Hour,Minute,Max,Hour,Minute]
15,7,Environment,Site Day Type Index [] !Daily [Value,Min,Hour,Minute,Max,Hour,Minute]
53,1,ZONE ONE,Zone Total Internal Latent Gain Energy [J] !Hourly
54,9,TEST 352 MINUS,Other Equipment Total Heating Energy [J] !Monthly [Value,Min,Day,Hour,Minute,Max,Day,Hour,Minute]
55,9,TEST 352A,Other Equipment Total Heating Energy [J] !Monthly [Value,Min,Day,Hour,Minute,Max,Day,Hour,Minute]
56,9,ZONE ONE,Zone Other Equipment Total Heating Energy [J] !Monthly [Value,Min,Day,Hour,Minute,Max,Day,Hour,Minute]
57,1,ZONE ONE,Zone Mean Radiant Temperature [C] !Hourly
58,7,ZN001:WALL001,Surface Inside Face Temperature [C] !Daily [Value,Min,Hour,Minute,Max,Hour,Minute]
59,7,ZN001:WALL001,Surface Outside Face Temperature [C] !Daily [Value,Min,Hour,Minute,Max,Hour,Minute]
60,7,ZN001:WALL001,Surface Inside Face Convection Heat Transfer Coefficient [W/m2-K] !Daily [Value,Min,Hour,Minute,Max,Hour,Minute]
61,7,ZN001:WALL001,Surface Outside Face Convection Heat Transfer Coefficient [W/m2-K] !Daily [Value,Min,Hour,Minute,Max,Hour,Minute]
62,7,ZN001:WALL002,Surface Inside Face Temperature [C] !Daily [Value,Min,Hour,Minute,Max,Hour,Minute]
63,7,ZN001:WALL002,Surface Outside Face Temperature [C] !Daily [Value,Min,Hour,Minute,Max,Hour,Minute]
64,7,ZN001:WALL002,Surface Inside Face Convection Heat Transfer Coefficient [W/m2-K] !Daily [Value,Min,Hour,Minute,Max,Hour,Minute]
65,7,ZN001:WALL002,Surface Outside Face Convection Heat Transfer Coefficient [W/m2-K] !Daily [Value,Min,Hour,Minute,Max,Hour,Minute]
66,7,ZN001:WALL003,Surface Inside Face Temperature [C] !Daily [Value,Min,Hour,Minute,Max,Hour,Minute]
67,7,ZN001:WALL003,Surface Outside Face Temperature [C] !Daily [Value,Min,Hour,Minute,Max,Hour,Minute]
68,7,ZN001:WALL003,Surface Inside Face Convection Heat Transfer Coefficient [W/m2-K] !Daily [Value,Min,Hour,Minute,Max,Hour,Minute]
69,7,ZN001:WALL003,Surface Outside Face Convection Heat Transfer Coefficient [W/m2-K] !Daily [Value,Min,Hour,Minute,Max,Hour,Minute]
70,7,ZN001:WALL004,Surface Inside Face Temperature [C] !Daily [Value,Min,Hour,Minute,Max,Hour,Minute]
71,7,ZN001:WALL004,Surface Outside Face Temperature [C] !Daily [Value,Min,Hour,Minute,Max,Hour,Minute]
72,7,ZN001:WALL004,Surface Inside Face Convection Heat Transfer Coefficient [W/m2-K] !Daily [Value,Min,Hour,Minute,Max,Hour,Minute]
73,7,ZN001:WALL004,Surface Outside Face Convection Heat Transfer Coefficient [W/m2-K] !Daily [Value,Min,Hour,Minute,Max,Hour,Minute]
74,7,ZN001:FLR001,Surface Inside Face Temperature [C] !Daily [Value,Min,Hour,Minute,Max,Hour,Minute]
75,7,ZN001:FLR001,Surface Outside Face Temperature [C] !Daily [Value,Min,Hour,Minute,Max,Hour,Minute]
76,7,ZN001:FLR001,Surface Inside Face Convection Heat Transfer Coefficient [W/m2-K] !Daily [Value,Min,Hour,Minute,Max,Hour,Minute]
77,7,ZN001:ROOF001,Surface Inside Face Temperature [C] !Daily [Value,Min,Hour,Minute,Max,Hour,Minute]
78,7,ZN001:ROOF001,Surface Outside Face Temperature [C] !Daily [Value,Min,Hour,Minute,Max,Hour,Minute]
79,7,ZN001:ROOF001,Surface Inside Face Convection Heat Transfer Coefficient [W/m2-K] !Daily [Value,Min,Hour,Minute,Max,Hour,Minute]
80,7,ZN001:ROOF001,Surface Outside Face Convection Heat Transfer Coefficient [W/m2-K] !Daily [Value,Min,Hour,Minute,Max,Hour,Minute]
81,1,ZONE ONE,Zone Mean Air Temperature [C] !Hourly
82,1,ZONE ONE,Zone Air Heat Balance Surface Convection Rate [W] !Hourly
83,1,ZONE ONE,Zone Air Heat Balance Air Energy Storage Rate [W] !Hourly
End of Data Dictionary
1,RUN PERIOD 1,  27.97, -82.53,  -5.00,   6.00
2,1, 1, 1, 0, 1, 0.00,15.00,Tuesday
11,19.85
2,1, 1, 1, 0, 1,15.00,30.00,Tuesday
11,19.7
2,1, 1, 1, 0, 1,30.00,45.00,Tuesday
11,19.549999999999997
2,1, 1, 1, 0, 1,45.00,60.00,Tuesday
11,19.4
2,1, 1, 1, 0, 1, 0.00,60.00,Tuesday
8,19.625
12,10.0
13,10.0
53,0.0
57,19.442691253943764
81,19.461135492285106
82,-5.2771299724306004
83,-3.658737594000832
2,1, 1, 1, 0, 2, 0.00,15.00,Tuesday
11,19.4
2,1, 1, 1, 0, 2,15.00,30.00,Tuesday
11,19.4
2,1, 1, 1, 0, 2,30.00,45.00,Tuesday
11,19.4
2,1, 1, 1, 0, 2,45.00,60.00,Tuesday
11,19.4
2,1, 1, 1, 0, 2, 0.00,60.00,Tuesday
8,19.4
12,10.0
13,10.0
53,0.0
57,19.408888021403506
81,19.43590363476029
82,-10.615398787497437
83,-10.670432514385805
2,1, 1, 1, 0, 3, 0.00,15.00,Tuesday
11,19.825
2,1, 1, 1, 0, 3,15.00,30.00,Tuesday
11,20.25
2,1, 1, 1, 0, 3,30.00,45.00,Tuesday
11,20.675
2,1, 1, 1, 0, 3,45.00,60.00,Tuesday
11,21.1
2,1, 1, 1, 0, 3, 0.00,60.00,Tuesday
8,20.4625
12,10.0
13,10.0
53,0.0
57,19.48639854704882
81,19.434925274814667
82,16.781308019066245
83,11.04952068262285
2,1, 1, 1, 0, 4, 0.00,15.00,Tuesday
11,21.1
2,1, 1, 1, 0, 4,15.00,30.00,Tuesday
11,21.1
2,1, 1, 1, 0, 4,30.00,45.00,Tuesday
11,21.1
2,1, 1, 1, 0, 4,45.00,60.00,Tuesday
11,21.1
2,1, 1, 1, 0, 4, 0.00,60.00,Tuesday
8,21.1
12,10.0
13,10.0
53,0.0
57,19.558450024322287
81,19.50536167810009
82,24.466826459456225
83,26.582566092734425
2,1, 1, 1, 0, 5, 0.00,15.00,Tuesday
11,20.55
2,1, 1, 1, 0, 5,15.00,30.00,Tuesday
11,20.0
2,1, 1, 1, 0, 5,30.00,45.00,Tuesday
11,19.45
2,1, 1, 1, 0, 5,45.00,60.00,Tuesday
11,18.9
2,1, 1, 1, 0, 5, 0.00,60.00,Tuesday
8,19.725
12,10.0
13,10.0
53,0.0
57,19.473185565245718
81,19.52579285175537
82,-16.917986772075373
83,-9.455633804565384
2,1, 1, 1, 0, 6, 0.00,15.00,Tuesday
11,19.025
2,1, 1, 1, 0, 6,15.00,30.00,Tuesday
11,19.15
2,1, 1, 1, 0, 6,30.00,45.00,Tuesday
11,19.275
2,1, 1, 1, 0, 6,45.00,60.00,Tuesday
11,19.4
2,1, 1, 1, 0, 6, 0.00,60.00,Tuesday
8,19.2125
12,10.0
13,10.0
53,0.0
57,19.419056729610958
81,19.456934212066084
82,-17.965322056426572
83,-22.552889449130607
2,1, 1, 1, 0, 7, 0.00,15.00,Tuesday
11,19.275
2,1, 1, 1, 0, 7,15.00,30.00,Tuesday
11,19.15
2,1, 1, 1, 0, 7,30.00,45.00,Tuesday
11,19.025
2,1, 1, 1, 0, 7,45.00,60.00,Tuesday
11,18.9
2,1, 1, 1, 0, 7, 0.00,60.00,Tuesday
8,19.0875
12,10.0
13,10.0
53,0.0
57,19.396859599810522
81,19.42517728039261
82,-10.924637138455116
83,-9.6969558363953
2,1, 1, 1, 0, 8, 0.00,15.00,Tuesday
11,18.9
2,1, 1, 1, 0, 8,15.00,30.00,Tuesday
11,18.9
2,1, 1, 1, 0, 8,30.00,45.00,Tuesday
11,18.9
2,1, 1, 1, 0, 8,45.00,60.00,Tuesday
11,18.9
2,1, 1, 1, 0, 8, 0.00,60.00,Tuesday
8,18.9
12,10.0
13,10.0
53,0.0
57,19.388888098700708
81,19.397540737028322
82,-3.719893448689624
83,-6.312514269330909
2,1, 1, 1, 0, 9, 0.00,15.00,Tuesday
11,19.174999999999997
2,1, 1, 1, 0, 9,15.00,30.00,Tuesday
11,19.45
2,1, 1, 1, 0, 9,30.00,45.00,Tuesday
11,19.725
2,1, 1, 1, 0, 9,45.00,60.00,Tuesday
11,20.0
2,1, 1, 1, 0, 9, 0.00,60.00,Tuesday
8,19.5875
12,10.0
13,10.0
53,0.0
57,19.431745989029217
81,19.403871782547107
82,8.31220953638789
83,6.619124032232182
2,1, 1, 1, 0,10, 0.00,15.00,Tuesday
11,19.725
2,1, 1, 1, 0,10,15.00,30.00,Tuesday
11,19.45
2,1, 1, 1, 0,10,30.00,45.00,Tuesday
11,19.174999999999997
2,1, 1, 1, 0,10,45.00,60.00,Tuesday
11,18.9
2,1, 1, 1, 0,10, 0.00,60.00,Tuesday
8,19.3125
12,10.0
13,10.0
53,0.0
57,19.40615515611418
81,19.422464131497907
82,-5.253277427962104
83,0.07221231267406347
2,1, 1, 1, 0,11, 0.00,15.00,Tuesday
11,19.025
2,1, 1, 1, 0,11,15.00,30.00,Tuesday
11,19.15
2,1, 1, 1, 0,11,30.00,45.00,Tuesday
11,19.275
2,1, 1, 1, 0,11,45.00,60.00,Tuesday
11,19.4
2,1, 1, 1, 0,11, 0.00,60.00,Tuesday
8,19.2125
12,10.0
13,10.0
53,0.0
57,19.396431657675805
81,19.39709734767975
82,-2.5258264020890717
83,-6.314062887490034
2,1, 1, 1, 0,12, 0.00,15.00,Tuesday
11,19.549999999999997
2,1, 1, 1, 0,12,15.00,30.00,Tuesday
11,19.7
2,1, 1, 1, 0,12,30.00,45.00,Tuesday
11,19.85
2,1, 1, 1, 0,12,45.00,60.00,Tuesday
11,20.0
2,1, 1, 1, 0,12, 0.00,60.00,Tuesday
8,19.775
12,10.0
13,10.0
53,0.0
57,19.43172506305462
81,19.407753876696646
82,6.145621441123227
83,6.32520990887282
2,1, 1, 1, 0,13, 0.00,15.00,Tuesday
11,19.85
2,1, 1, 1, 0,13,15.00,30.00,Tuesday
11,19.7
2,1, 1, 1, 0,13,30.00,45.00,Tuesday
11,19.549999999999997
2,1, 1, 1, 0,13,45.00,60.00,Tuesday
11,19.4
2,1, 1, 1, 0,13, 0.00,60.00,Tuesday
8,19.625
12,10.0
13,10.0
53,0.0
57,19.434954112305412
81,19.421797748445883
82,3.052208603845131
83,3.6647928734711557
2,1, 1, 1, 0,14, 0.00,15.00,Tuesday
11,19.275
2,1, 1, 1, 0,14,15.00,30.00,Tuesday
11,19.15
2,1, 1, 1, 0,14,30.00,45.00,Tuesday
11,19.025
2,1, 1, 1, 0,14,45.00,60.00,Tuesday
11,18.9
2,1, 1, 1, 0,14, 0.00,60.00,Tuesday
8,19.0875
12,10.0
13,10.0
53,0.0
57,19.402192099921844
81,19.420300098753096
82,-5.302572747139084
83,-3.871247681988498
2,1, 1, 1, 0,15, 0.00,15.00,Tuesday
11,18.75
2,1, 1, 1, 0,15,15.00,30.00,Tuesday
11,18.6
2,1, 1, 1, 0,15,30.00,45.00,Tuesday
11,18.450000000000003
2,1, 1, 1, 0,15,45.00,60.00,Tuesday
11,18.3
2,1, 1, 1, 0,15, 0.00,60.00,Tuesday
8,18.525000000000002
12,10.0
13,10.0
53,0.0
57,19.447104123230726
81,19.411535523604357
82,15.395230852433382
83,7.854648664958346
2,1, 1, 1, 0,16, 0.00,15.00,Tuesday
11,18.875
2,1, 1, 1, 0,16,15.00,30.00,Tuesday
11,19.450000000000003
2,1, 1, 1, 0,16,30.00,45.00,Tuesday
11,20.025000000000002
2,1, 1, 1, 0,16,45.00,60.00,Tuesday
11,20.6
2,1, 1, 1, 0,16, 0.00,60.00,Tuesday
8,19.737500000000004
12,10.0
13,10.0
53,0.0
57,19.433368496158497
81,19.43756744157426
82,-3.6079980970303995
83,1.0401140215223572
2,1, 1, 1, 0,17, 0.00,15.00,Tuesday
11,20.450000000000003
2,1, 1, 1, 0,17,15.00,30.00,Tuesday
11,20.3
2,1, 1, 1, 0,17,30.00,45.00,Tuesday
11,20.15
2,1, 1, 1, 0,17,45.00,60.00,Tuesday
11,20.0
2,1, 1, 1, 0,17, 0.00,60.00,Tuesday
8,20.225
12,10.0
13,10.0
53,0.0
57,19.48747919673667
81,19.46010163768192
82,10.512467937007834
83,11.328081066997765
2,1, 1, 1, 0,18, 0.00,15.00,Tuesday
11,20.15
2,1, 1, 1, 0,18,15.00,30.00,Tuesday
11,20.3
2,1, 1, 1, 0,18,30.00,45.00,Tuesday
11,20.450000000000003
2,1, 1, 1, 0,18,45.00,60.00,Tuesday
11,20.6
2,1, 1, 1, 0,18, 0.00,60.00,Tuesday
8,20.375
12,10.0
13,10.0
53,0.0
57,19.501298621691916
81,19.482065718754253
82,7.159330918994793
83,6.815160627496597
2,1, 1, 1, 0,19, 0.00,15.00,Tuesday
11,20.6
2,1, 1, 1, 0,19,15.00,30.00,Tuesday
11,20.6
2,1, 1, 1, 0,19,30.00,45.00,Tuesday
11,20.6
2,1, 1, 1, 0,19,45.00,60.00,Tuesday
11,20.6
2,1, 1, 1, 0,19, 0.00,60.00,Tuesday
8,20.6
12,10.0
13,10.0
53,0.0
57,19.49929366669972
81,19.499637127341586
82,2.436385785986984
83,4.116209958339112
2,1, 1, 1, 0,20, 0.00,15.00,Tuesday
11,20.450000000000003
2,1, 1, 1, 0,20,15.00,30.00,Tuesday
11,20.3
2,1, 1, 1, 0,20,30.00,45.00,Tuesday
11,20.15
2,1, 1, 1, 0,20,45.00,60.00,Tuesday
11,20.0
2,1, 1, 1, 0,20, 0.00,60.00,Tuesday
8,20.225
12,10.0
13,10.0
53,0.0
57,19.487107134118286
81,19.496689129759922
82,-2.1023017092649177
83,-2.3818648235746647
2,1, 1, 1, 0,21, 0.00,15.00,Tuesday
11,20.0
2,1, 1, 1, 0,21,15.00,30.00,Tuesday
11,20.0
2,1, 1, 1, 0,21,30.00,45.00,Tuesday
11,20.0
2,1, 1, 1, 0,21,45.00,60.00,Tuesday
11,20.0
2,1, 1, 1, 0,21, 0.00,60.00,Tuesday
8,20.0
12,10.0
13,10.0
53,0.0
57,19.47496857082843
81,19.489278837346866
82,-2.9030870225562904
83,-2.9186677986017915
2,1, 1, 1, 0,22, 0.00,15.00,Tuesday
11,19.85
2,1, 1, 1, 0,22,15.00,30.00,Tuesday
11,19.7
2,1, 1, 1, 0,22,30.00,45.00,Tuesday
11,19.549999999999997
2,1, 1, 1, 0,22,45.00,60.00,Tuesday
11,19.4
2,1, 1, 1, 0,22, 0.00,60.00,Tuesday
8,19.625
12,10.0
13,10.0
53,0.0
57,19.450065396924188
81,19.477195884307147
82,-7.709504137564711
83,-6.445518347442954
2,1, 1, 1, 0,23, 0.00,15.00,Tuesday
11,19.549999999999997
2,1, 1, 1, 0,23,15.00,30.00,Tuesday
11,19.7
2,1, 1, 1, 0,23,30.00,45.00,Tuesday
11,19.85
2,1, 1, 1, 0,23,45.00,60.00,Tuesday
11,20.0
2,1, 1, 1, 0,23, 0.00,60.00,Tuesday
8,19.775
12,10.0
13,10.0
53,0.0
57,19.453586307442308
81,19.457653058396975
82,-2.271555161200042
83,-4.209673721111124
2,1, 1, 1, 0,24, 0.00,15.00,Tuesday
11,20.0
2,1, 1, 1, 0,24,15.00,30.00,Tuesday
11,20.0
2,1, 1, 1, 0,24,30.00,45.00,Tuesday
11,20.0
2,1, 1, 1, 0,24,45.00,60.00,Tuesday
11,20.0
2,1, 1, 1, 0,24, 0.00,60.00,Tuesday
8,20.0
12,10.0
13,10.0
53,0.0
57,19.469513356222897
81,19.460908161069305
82,2.2770174815942417
83,2.4504264510628806
3,1, 1, 1, 0,Tuesday
7,19.71666666666667,18.3,15,60,21.1, 3,60
58,19.45288610685944,19.3123045232718,10,60,19.63660813335258, 4,60
59,19.510338179827276,18.494162740286317,10,60,20.765007555103765, 4,60
60,0.4437111750807126,0.11793736092996199, 9,45,0.7315217379935381,15,60
61,462.7454462471678,1.0255013086549059,19,60,1000.0, 9,15
62,19.452517713069167,19.31228764840473,10,60,19.636608133365144, 4,60
63,19.504840369876778,18.4939064202129,10,60,20.765007555146045, 4,60
64,0.44344685526347033,0.11792398022482249, 9,45,0.7234611493121192,15,60
65,462.5592500246905,1.0604880214396528,19,60,1000.0, 9,15
66,19.452654320080153,19.312205751097288,10,60,19.636025633640845, 4,60
67,19.507023116139695,18.49261903322985,10,60,20.756037814755697, 4,60
68,0.4432466345274903,0.10927008193615638, 1,30,0.7460774508888081,15,60
69,462.40098522969396,1.060488489996128,19,60,1000.0, 9,15
70,19.452761759970723,19.312205751097274,10,60,19.63662536610901, 4,60
71,19.508496355942256,18.49261903322985,10,60,20.765035228163853, 4,60
72,0.44372042489927477,0.11793736092996199, 9,45,0.7291584050350659,15,60
73,462.7008395749535,1.0258225938647347,19,60,1000.0, 9,15
74,19.448902836741496,19.4134888807854,15,30,19.482539459782668, 5,15
75,19.448919398019125,19.4134888807854,15,45,19.482539459782668, 5,30
76,0.2957113851294722,0.1, 1,30,0.5369818740829064, 8,60
77,19.44537209836346,19.348410686597997,15,30,19.577456505394576, 4,60
78,19.273972559169263,18.17892624601859, 2,60,21.807552741887793,15,45
79,0.363366382543433,0.1, 5,30,0.7192523812548581, 6,15
80,463.42880040865225,0.8393511625635188,19,60,1000.0, 9,15
14,0.0,0, 1,15,0, 1,15
15,3.,3, 1,15,3, 1,15
4,1, 1
9,19.71666666666667,18.3, 1,15,60,21.1, 1, 3,60
54,-30412800.0,-316800.0, 1, 1,15,-316800.0, 1, 1,15
55,30412800.0,316800.0, 1, 1,15,316800.0, 1, 1,15
56,0.0,0.0, 1, 1,15,0.0, 1, 1,15
5,1
10,19.71666666666667,18.3, 1, 1,15,60,21.1, 1, 1, 3,60
End of Data
 Number of Records Written=         319
