Program Version,EnergyPlus, Version 9.0.1-bb7ca4f0da, YMD=2019.05.29 17:54
1,5,Environment Title[],Latitude[deg],Longitude[deg],Time Zone[],Elevation[m]
2,8,Day of Simulation[],Month[],Day of Month[],DST Indicator[1=yes 0=no],Hour[],StartMinute[],EndMinute[],DayType
3,5,Cumulative Day of Simulation[],Month[],Day of Month[],DST Indicator[1=yes 0=no],DayType  ! When Daily Report Variables Requested
4,2,Cumulative Days of Simulation[],Month[]  ! When Monthly Report Variables Requested
5,1,Cumulative Days of Simulation[] ! When Run Period Report Variables Requested
6,1,Calendar Year of Simulation[] ! When Annual Report Variables Requested
7,1,Environment,Site Outdoor Air Drybulb Temperature [C] !Hourly
8,1,Environment,Site Outdoor Air Drybulb Temperature [C] !TimeStep
9,7,Environment,Site Outdoor Air Drybulb Temperature [C] !Daily [Value,Min,Hour,Minute,Max,Hour,Minute]
10,9,Environment,Site Outdoor Air Drybulb Temperature [C] !Monthly [Value,Min,Day,Hour,Minute,Max,Day,Hour,Minute]
11,11,Environment,Site Outdoor Air Drybulb Temperature [C] !RunPeriod [Value,Min,Month,Day,Hour,Minute,Max,Month,Day,Hour,Minute]
12,7,Environment,Site Daylight Saving Time Status [] !Daily [Value,Min,Hour,Minute,Max,Hour,Minute]
13,7,Environment,Site Day Type Index [] !Daily [Value,Min,Hour,Minute,Max,Hour,Minute]
51,1,ZONE ONE,Zone Total Internal Latent Gain Energy [J] !Hourly
52,9,TEST 352A,Other Equipment Total Heating Energy [J] !Monthly [Value,Min,Day,Hour,Minute,Max,Day,Hour,Minute]
53,9,ZONE ONE,Zone Other Equipment Total Heating Energy [J] !Monthly [Value,Min,Day,Hour,Minute,Max,Day,Hour,Minute]
54,9,TEST 352 MINUS,Other Equipment Total Heating Energy [J] !Monthly [Value,Min,Day,Hour,Minute,Max,Day,Hour,Minute]
55,7,ZN001:WALL001,Surface Inside Face Temperature [C] !Daily [Value,Min,Hour,Minute,Max,Hour,Minute]
56,7,ZN001:WALL001,Surface Outside Face Temperature [C] !Daily [Value,Min,Hour,Minute,Max,Hour,Minute]
57,7,ZN001:WALL001,Surface Inside Face Convection Heat Transfer Coefficient [W/m2-K] !Daily [Value,Min,Hour,Minute,Max,Hour,Minute]
58,7,ZN001:WALL001,Surface Outside Face Convection Heat Transfer Coefficient [W/m2-K] !Daily [Value,Min,Hour,Minute,Max,Hour,Minute]
59,7,ZN001:WALL002,Surface Inside Face Temperature [C] !Daily [Value,Min,Hour,Minute,Max,Hour,Minute]
60,7,ZN001:WALL002,Surface Outside Face Temperature [C] !Daily [Value,Min,Hour,Minute,Max,Hour,Minute]
61,7,ZN001:WALL002,Surface Inside Face Convection Heat Transfer Coefficient [W/m2-K] !Daily [Value,Min,Hour,Minute,Max,Hour,Minute]
62,7,ZN001:WALL002,Surface Outside Face Convection Heat Transfer Coefficient [W/m2-K] !Daily [Value,Min,Hour,Minute,Max,Hour,Minute]
63,7,ZN001:WALL003,Surface Inside Face Temperature [C] !Daily [Value,Min,Hour,Minute,Max,Hour,Minute]
64,7,ZN001:WALL003,Surface Outside Face Temperature [C] !Daily [Value,Min,Hour,Minute,Max,Hour,Minute]
65,7,ZN001:WALL003,Surface Inside Face Convection Heat Transfer Coefficient [W/m2-K] !Daily [Value,Min,Hour,Minute,Max,Hour,Minute]
66,7,ZN001:WALL003,Surface Outside Face Convection Heat Transfer Coefficient [W/m2-K] !Daily [Value,Min,Hour,Minute,Max,Hour,Minute]
67,7,ZN001:WALL004,Surface Inside Face Temperature [C] !Daily [Value,Min,Hour,Minute,Max,Hour,Minute]
68,7,ZN001:WALL004,Surface Outside Face Temperature [C] !Daily [Value,Min,Hour,Minute,Max,Hour,Minute]
69,7,ZN001:WALL004,Surface Inside Face Convection Heat Transfer Coefficient [W/m2-K] !Daily [Value,Min,Hour,Minute,Max,Hour,Minute]
70,7,ZN001:WALL004,Surface Outside Face Convection Heat Transfer Coefficient [W/m2-K] !Daily [Value,Min,Hour,Minute,Max,Hour,Minute]
71,7,ZN001:FLR001,Surface Inside Face Temperature [C] !Daily [Value,Min,Hour,Minute,Max,Hour,Minute]
72,7,ZN001:FLR001,Surface Outside Face Temperature [C] !Daily [Value,Min,Hour,Minute,Max,Hour,Minute]
73,7,ZN001:FLR001,Surface Inside Face Convection Heat Transfer Coefficient [W/m2-K] !Daily [Value,Min,Hour,Minute,Max,Hour,Minute]
74,7,ZN001:ROOF001,Surface Inside Face Temperature [C] !Daily [Value,Min,Hour,Minute,Max,Hour,Minute]
75,7,ZN001:ROOF001,Surface Outside Face Temperature [C] !Daily [Value,Min,Hour,Minute,Max,Hour,Minute]
76,7,ZN001:ROOF001,Surface Inside Face Convection Heat Transfer Coefficient [W/m2-K] !Daily [Value,Min,Hour,Minute,Max,Hour,Minute]
77,7,ZN001:ROOF001,Surface Outside Face Convection Heat Transfer Coefficient [W/m2-K] !Daily [Value,Min,Hour,Minute,Max,Hour,Minute]
78,1,ZONE ONE,Zone Mean Radiant Temperature [C] !Hourly
79,1,ZONE ONE,Zone Mean Air Temperature [C] !Hourly
80,1,ZONE ONE,Zone Air Heat Balance Surface Convection Rate [W] !Hourly
81,1,ZONE ONE,Zone Air Heat Balance Air Energy Storage Rate [W] !Hourly
End of Data Dictionary
1,RUNPERIOD 1,  27.97, -82.53,  -5.00,   6.00
2,1, 1, 1, 0, 1, 0.00,15.00,Tuesday
8,19.85
2,1, 1, 1, 0, 1,15.00,30.00,Tuesday
8,19.7
2,1, 1, 1, 0, 1,30.00,45.00,Tuesday
8,19.549999999999998
2,1, 1, 1, 0, 1,45.00,60.00,Tuesday
8,19.4
2,1, 1, 1, 0, 1, 0.00,60.00,Tuesday
7,19.625
51,0.0
78,19.442701392791684
79,19.461167970280326
80,-5.282684300966059
81,-3.6643230429611934
2,1, 1, 1, 0, 2, 0.00,15.00,Tuesday
8,19.4
2,1, 1, 1, 0, 2,15.00,30.00,Tuesday
8,19.4
2,1, 1, 1, 0, 2,30.00,45.00,Tuesday
8,19.4
2,1, 1, 1, 0, 2,45.00,60.00,Tuesday
8,19.4
2,1, 1, 1, 0, 2, 0.00,60.00,Tuesday
7,19.4
51,0.0
78,19.408930713710306
79,19.43594201675272
80,-10.61279628551096
81,-10.667415033801483
2,1, 1, 1, 0, 3, 0.00,15.00,Tuesday
8,19.825
2,1, 1, 1, 0, 3,15.00,30.00,Tuesday
8,20.25
2,1, 1, 1, 0, 3,30.00,45.00,Tuesday
8,20.675
2,1, 1, 1, 0, 3,45.00,60.00,Tuesday
8,21.1
2,1, 1, 1, 0, 3, 0.00,60.00,Tuesday
7,20.4625
51,0.0
78,19.486270806865535
79,19.434888615579454
80,16.737644240257148
81,11.005435899969541
2,1, 1, 1, 0, 4, 0.00,15.00,Tuesday
8,21.1
2,1, 1, 1, 0, 4,15.00,30.00,Tuesday
8,21.1
2,1, 1, 1, 0, 4,30.00,45.00,Tuesday
8,21.1
2,1, 1, 1, 0, 4,45.00,60.00,Tuesday
8,21.1
2,1, 1, 1, 0, 4, 0.00,60.00,Tuesday
7,21.1
51,0.0
78,19.55847982871183
79,19.50532135323707
80,24.501419106475006
81,26.613825542734149
2,1, 1, 1, 0, 5, 0.00,15.00,Tuesday
8,20.55
2,1, 1, 1, 0, 5,15.00,30.00,Tuesday
8,20.0
2,1, 1, 1, 0, 5,30.00,45.00,Tuesday
8,19.45
2,1, 1, 1, 0, 5,45.00,60.00,Tuesday
8,18.9
2,1, 1, 1, 0, 5, 0.00,60.00,Tuesday
7,19.725
51,0.0
78,19.473379128245719
79,19.525863844815875
80,-16.854307836692639
81,-9.404264892929099
2,1, 1, 1, 0, 6, 0.00,15.00,Tuesday
8,19.025
2,1, 1, 1, 0, 6,15.00,30.00,Tuesday
8,19.15
2,1, 1, 1, 0, 6,30.00,45.00,Tuesday
8,19.275
2,1, 1, 1, 0, 6,45.00,60.00,Tuesday
8,19.4
2,1, 1, 1, 0, 6, 0.00,60.00,Tuesday
7,19.2125
51,0.0
78,19.41938676808413
79,19.457211026026959
80,-17.916791738875767
81,-22.490098952153489
2,1, 1, 1, 0, 7, 0.00,15.00,Tuesday
8,19.275
2,1, 1, 1, 0, 7,15.00,30.00,Tuesday
8,19.15
2,1, 1, 1, 0, 7,30.00,45.00,Tuesday
8,19.025
2,1, 1, 1, 0, 7,45.00,60.00,Tuesday
8,18.9
2,1, 1, 1, 0, 7, 0.00,60.00,Tuesday
7,19.0875
51,0.0
78,19.396974662610896
79,19.42541535543588
80,-10.981200751888056
81,-9.74756267241256
2,1, 1, 1, 0, 8, 0.00,15.00,Tuesday
8,18.9
2,1, 1, 1, 0, 8,15.00,30.00,Tuesday
8,18.9
2,1, 1, 1, 0, 8,30.00,45.00,Tuesday
8,18.9
2,1, 1, 1, 0, 8,45.00,60.00,Tuesday
8,18.9
2,1, 1, 1, 0, 8, 0.00,60.00,Tuesday
7,18.9
51,0.0
78,19.388914980622717
79,19.397665558300529
80,-3.7556281490459968
81,-6.344355174800992
2,1, 1, 1, 0, 9, 0.00,15.00,Tuesday
8,19.174999999999998
2,1, 1, 1, 0, 9,15.00,30.00,Tuesday
8,19.45
2,1, 1, 1, 0, 9,30.00,45.00,Tuesday
8,19.725
2,1, 1, 1, 0, 9,45.00,60.00,Tuesday
8,20.0
2,1, 1, 1, 0, 9, 0.00,60.00,Tuesday
7,19.5875
51,0.0
78,19.43179608327533
79,19.403891710535107
80,8.30067393967274
81,6.595051219593607
2,1, 1, 1, 0,10, 0.00,15.00,Tuesday
8,19.725
2,1, 1, 1, 0,10,15.00,30.00,Tuesday
8,19.45
2,1, 1, 1, 0,10,30.00,45.00,Tuesday
8,19.174999999999998
2,1, 1, 1, 0,10,45.00,60.00,Tuesday
8,18.9
2,1, 1, 1, 0,10, 0.00,60.00,Tuesday
7,19.3125
51,0.0
78,19.406175436725808
79,19.422493491282745
80,-5.25868247257192
81,0.07249245902848856
2,1, 1, 1, 0,11, 0.00,15.00,Tuesday
8,19.025
2,1, 1, 1, 0,11,15.00,30.00,Tuesday
8,19.15
2,1, 1, 1, 0,11,30.00,45.00,Tuesday
8,19.275
2,1, 1, 1, 0,11,45.00,60.00,Tuesday
8,19.4
2,1, 1, 1, 0,11, 0.00,60.00,Tuesday
7,19.2125
51,0.0
78,19.396457267909136
79,19.397110834175949
80,-2.5231690317447525
81,-6.3152447290376279
2,1, 1, 1, 0,12, 0.00,15.00,Tuesday
8,19.549999999999998
2,1, 1, 1, 0,12,15.00,30.00,Tuesday
8,19.7
2,1, 1, 1, 0,12,30.00,45.00,Tuesday
8,19.85
2,1, 1, 1, 0,12,45.00,60.00,Tuesday
8,20.0
2,1, 1, 1, 0,12, 0.00,60.00,Tuesday
7,19.775
51,0.0
78,19.43173352877785
79,19.407776855076283
80,6.142445626750625
81,6.325025420202253
2,1, 1, 1, 0,13, 0.00,15.00,Tuesday
8,19.85
2,1, 1, 1, 0,13,15.00,30.00,Tuesday
8,19.7
2,1, 1, 1, 0,13,30.00,45.00,Tuesday
8,19.549999999999998
2,1, 1, 1, 0,13,45.00,60.00,Tuesday
8,19.4
2,1, 1, 1, 0,13, 0.00,60.00,Tuesday
7,19.625
51,0.0
78,19.434957997178658
79,19.421803591056358
80,3.0498189619744768
81,3.6601122249840145
2,1, 1, 1, 0,14, 0.00,15.00,Tuesday
8,19.275
2,1, 1, 1, 0,14,15.00,30.00,Tuesday
8,19.15
2,1, 1, 1, 0,14,30.00,45.00,Tuesday
8,19.025
2,1, 1, 1, 0,14,45.00,60.00,Tuesday
8,18.9
2,1, 1, 1, 0,14, 0.00,60.00,Tuesday
7,19.0875
51,0.0
78,19.402224086005519
79,19.420313861388324
80,-5.297094978402004
81,-3.8657638788917207
2,1, 1, 1, 0,15, 0.00,15.00,Tuesday
8,18.75
2,1, 1, 1, 0,15,15.00,30.00,Tuesday
8,18.6
2,1, 1, 1, 0,15,30.00,45.00,Tuesday
8,18.450000000000004
2,1, 1, 1, 0,15,45.00,60.00,Tuesday
8,18.3
2,1, 1, 1, 0,15, 0.00,60.00,Tuesday
7,18.525000000000003
51,0.0
78,19.44713464990381
79,19.41156124140917
80,15.397091113078723
81,7.857137053566621
2,1, 1, 1, 0,16, 0.00,15.00,Tuesday
8,18.875
2,1, 1, 1, 0,16,15.00,30.00,Tuesday
8,19.450000000000004
2,1, 1, 1, 0,16,30.00,45.00,Tuesday
8,20.025000000000003
2,1, 1, 1, 0,16,45.00,60.00,Tuesday
8,20.6
2,1, 1, 1, 0,16, 0.00,60.00,Tuesday
7,19.737500000000006
51,0.0
78,19.43335403531653
79,19.437581294603228
80,-3.6204285714697246
81,1.03040723290955
2,1, 1, 1, 0,17, 0.00,15.00,Tuesday
8,20.450000000000004
2,1, 1, 1, 0,17,15.00,30.00,Tuesday
8,20.3
2,1, 1, 1, 0,17,30.00,45.00,Tuesday
8,20.15
2,1, 1, 1, 0,17,45.00,60.00,Tuesday
8,20.0
2,1, 1, 1, 0,17, 0.00,60.00,Tuesday
7,20.225
51,0.0
78,19.487466165196687
79,19.46008376366846
80,10.509622673884963
81,11.321515608714732
2,1, 1, 1, 0,18, 0.00,15.00,Tuesday
8,20.15
2,1, 1, 1, 0,18,15.00,30.00,Tuesday
8,20.3
2,1, 1, 1, 0,18,30.00,45.00,Tuesday
8,20.450000000000004
2,1, 1, 1, 0,18,45.00,60.00,Tuesday
8,20.6
2,1, 1, 1, 0,18, 0.00,60.00,Tuesday
7,20.375
51,0.0
78,19.501284706734589
79,19.48204927319131
80,7.1583331168417889
81,6.815137666085754
2,1, 1, 1, 0,19, 0.00,15.00,Tuesday
8,20.6
2,1, 1, 1, 0,19,15.00,30.00,Tuesday
8,20.6
2,1, 1, 1, 0,19,30.00,45.00,Tuesday
8,20.6
2,1, 1, 1, 0,19,45.00,60.00,Tuesday
8,20.6
2,1, 1, 1, 0,19, 0.00,60.00,Tuesday
7,20.6
51,0.0
78,19.499301305216667
79,19.499627062292725
80,2.441966757037094
81,4.121258045293398
2,1, 1, 1, 0,20, 0.00,15.00,Tuesday
8,20.450000000000004
2,1, 1, 1, 0,20,15.00,30.00,Tuesday
8,20.3
2,1, 1, 1, 0,20,30.00,45.00,Tuesday
8,20.15
2,1, 1, 1, 0,20,45.00,60.00,Tuesday
8,20.0
2,1, 1, 1, 0,20, 0.00,60.00,Tuesday
7,20.225
51,0.0
78,19.487106649977237
79,19.49668652796683
80,-2.10187505947122
81,-2.3810387875908169
2,1, 1, 1, 0,21, 0.00,15.00,Tuesday
8,20.0
2,1, 1, 1, 0,21,15.00,30.00,Tuesday
8,20.0
2,1, 1, 1, 0,21,30.00,45.00,Tuesday
8,20.0
2,1, 1, 1, 0,21,45.00,60.00,Tuesday
8,20.0
2,1, 1, 1, 0,21, 0.00,60.00,Tuesday
7,20.0
51,0.0
78,19.474902386741598
79,19.4892588253998
80,-2.916094574281752
81,-2.9299895355541016
2,1, 1, 1, 0,22, 0.00,15.00,Tuesday
8,19.85
2,1, 1, 1, 0,22,15.00,30.00,Tuesday
8,19.7
2,1, 1, 1, 0,22,30.00,45.00,Tuesday
8,19.549999999999998
2,1, 1, 1, 0,22,45.00,60.00,Tuesday
8,19.4
2,1, 1, 1, 0,22, 0.00,60.00,Tuesday
7,19.625
51,0.0
78,19.45000592222145
79,19.47714182063778
80,-7.716675699713631
81,-6.454969801772421
2,1, 1, 1, 0,23, 0.00,15.00,Tuesday
8,19.549999999999998
2,1, 1, 1, 0,23,15.00,30.00,Tuesday
8,19.7
2,1, 1, 1, 0,23,30.00,45.00,Tuesday
8,19.85
2,1, 1, 1, 0,23,45.00,60.00,Tuesday
8,20.0
2,1, 1, 1, 0,23, 0.00,60.00,Tuesday
7,19.775
51,0.0
78,19.45369263018237
79,19.457647397879609
80,-2.232514944405428
81,-4.173414999112151
2,1, 1, 1, 0,24, 0.00,15.00,Tuesday
8,20.0
2,1, 1, 1, 0,24,15.00,30.00,Tuesday
8,20.0
2,1, 1, 1, 0,24,30.00,45.00,Tuesday
8,20.0
2,1, 1, 1, 0,24,45.00,60.00,Tuesday
8,20.0
2,1, 1, 1, 0,24, 0.00,60.00,Tuesday
7,20.0
51,0.0
78,19.469521445090949
79,19.460948523741715
80,2.2694154820030607
81,2.447246776594858
3,1, 1, 1, 0,Tuesday
9,19.71666666666667,18.3,15,60,21.1, 3,60
55,19.45289762248509,19.312250454348566,10,60,19.63661362941328, 4,60
56,19.510087037784265,18.49328740066039,10,60,20.765010474699257, 4,60
57,0.4437556068082504,0.11764050712909717, 9,45,0.7315159835102372,15,60
58,462.74544662975839,1.0255009461330036,19,60,1000.0, 9,15
59,19.452608738015245,19.312233579936188,10,60,19.636613629407664, 4,60
60,19.50579570386294,18.49303108058083,10,60,20.76501047468048, 4,60
61,0.443434125939767,0.11764048992985071, 9,45,0.723455255315836,15,60
62,462.6454290157742,1.0604875955909266,19,60,1000.0, 9,15
63,19.452665713167574,19.31215168586604,10,60,19.63603114340457, 4,60
64,19.506770674047414,18.491743693549294,10,60,20.756040818605169, 4,60
65,0.44329365540666196,0.10739357246869091, 1,30,0.7460713877798034,15,60
66,462.4009866878943,1.060488064116628,19,60,1000.0, 9,15
67,19.45280070870093,19.312151685866068,10,60,19.63661362941328, 4,60
68,19.508649237542277,18.491743693549294,10,60,20.765010474699257, 4,60
69,0.4437743597453356,0.11764050712909717, 9,45,0.7291526101225114,15,60
70,462.7203657682033,1.0258222129665498,19,60,1000.0, 9,15
71,19.448934837142109,19.413525600465666,15,30,19.482547817707354, 5,15
72,19.44895149998745,19.413525600465666,15,45,19.482547817707354, 5,30
73,0.2956347612145598,0.1, 1,30,0.5368808305843552, 8,60
74,19.44539367189351,19.34844141967242,15,30,19.577463919454883, 4,60
75,19.27362342614384,18.178926972001415, 2,60,21.807417431358009,15,45
76,0.3633928408811344,0.1, 5,30,0.7189737278678731, 6,15
77,463.4287569874494,0.8393505386993125,19,60,1000.0, 9,15
12,0.0,0, 1,15,0, 1,15
13,3.,3, 1,15,3, 1,15
4,1, 1
10,19.71666666666667,18.3, 1,15,60,21.1, 1, 3,60
52,30412800.0,316800.0, 1, 1,15,316800.0, 1, 1,15
53,0.0,0.0, 1, 1,15,0.0, 1, 1,15
54,-30412800.0,-316800.0, 1, 1,15,-316800.0, 1, 1,15
5,1
11,19.71666666666667,18.3, 1, 1,15,60,21.1, 1, 1, 3,60
End of Data
 Number of Records Written=         271
